# vtk DataFile Version 3.0
Triangulation generated with deal.II
ASCII
DATASET UNSTRUCTURED_GRID
POINTS 25 double
0 0 0
1 0 0
0 1 0
1 1 0
0.5 0 0
0 0.5 0
1 0.5 0
0.5 1 0
0.5 0.5 0
0.25 0 0
0.75 0 0
0 0.25 0
0 0.75 0
1 0.25 0
1 0.75 0
0.25 1 0
0.75 1 0
0.5 0.25 0
0.5 0.75 0
0.25 0.5 0
0.75 0.5 0
0.25 0.25 0
0.75 0.25 0
0.25 0.75 0
0.75 0.75 0

CELLS 16 80
4 0 9 21 11
4 9 4 17 21
4 11 21 19 5
4 21 17 8 19
4 4 10 22 17
4 10 1 13 22
4 17 22 20 8
4 22 13 6 20
4 5 19 23 12
4 19 8 18 23
4 12 23 15 2
4 23 18 7 15
4 8 20 24 18
4 20 6 14 24
4 18 24 16 7
4 24 14 3 16

CELL_TYPES 16
9 9 9 9 9 9 9 9 9 9 9 9 9 9 9 9 



CELL_DATA 16
SCALARS MaterialID int 1
LOOKUP_TABLE default
0 1 1 0 0 1 1 0 0 1 1 0 0 1 1 0 



SCALARS ManifoldID int 1
LOOKUP_TABLE default
-1 -1 -1 -1 -1 -1 -1 -1 -1 -1 -1 -1 -1 -1 -1 -1 


