# vtk DataFile Version 3.0
Triangulation generated with deal.II
ASCII
DATASET UNSTRUCTURED_GRID
POINTS 81 double
0 0 0
1 0 0
0 1 0
1 1 0
0.5 0 0
0 0.5 0
1 0.5 0
0.5 1 0
0.5 0.5 0
0.25 0 0
0.75 0 0
0 0.25 0
0 0.75 0
1 0.25 0
1 0.75 0
0.25 1 0
0.75 1 0
0.5 0.25 0
0.5 0.75 0
0.25 0.5 0
0.75 0.5 0
0.25 0.25 0
0.75 0.25 0
0.25 0.75 0
0.75 0.75 0
0.125 0 0
0.375 0 0
0.625 0 0
0.875 0 0
0 0.125 0
0 0.375 0
0 0.625 0
0 0.875 0
1 0.125 0
1 0.375 0
1 0.625 0
1 0.875 0
0.125 1 0
0.375 1 0
0.625 1 0
0.875 1 0
0.5 0.125 0
0.5 0.375 0
0.5 0.625 0
0.5 0.875 0
0.125 0.5 0
0.375 0.5 0
0.625 0.5 0
0.875 0.5 0
0.25 0.125 0
0.25 0.375 0
0.125 0.25 0
0.375 0.25 0
0.75 0.125 0
0.75 0.375 0
0.625 0.25 0
0.875 0.25 0
0.25 0.625 0
0.25 0.875 0
0.125 0.75 0
0.375 0.75 0
0.75 0.625 0
0.75 0.875 0
0.625 0.75 0
0.875 0.75 0
0.125 0.125 0
0.375 0.125 0
0.125 0.375 0
0.375 0.375 0
0.625 0.125 0
0.875 0.125 0
0.625 0.375 0
0.875 0.375 0
0.125 0.625 0
0.375 0.625 0
0.125 0.875 0
0.375 0.875 0
0.625 0.625 0
0.875 0.625 0
0.625 0.875 0
0.875 0.875 0

CELLS 64 320
4 0 25 65 29
4 25 9 49 65
4 29 65 51 11
4 65 49 21 51
4 9 26 66 49
4 26 4 41 66
4 49 66 52 21
4 66 41 17 52
4 11 51 67 30
4 51 21 50 67
4 30 67 45 5
4 67 50 19 45
4 21 52 68 50
4 52 17 42 68
4 50 68 46 19
4 68 42 8 46
4 4 27 69 41
4 27 10 53 69
4 41 69 55 17
4 69 53 22 55
4 10 28 70 53
4 28 1 33 70
4 53 70 56 22
4 70 33 13 56
4 17 55 71 42
4 55 22 54 71
4 42 71 47 8
4 71 54 20 47
4 22 56 72 54
4 56 13 34 72
4 54 72 48 20
4 72 34 6 48
4 5 45 73 31
4 45 19 57 73
4 31 73 59 12
4 73 57 23 59
4 19 46 74 57
4 46 8 43 74
4 57 74 60 23
4 74 43 18 60
4 12 59 75 32
4 59 23 58 75
4 32 75 37 2
4 75 58 15 37
4 23 60 76 58
4 60 18 44 76
4 58 76 38 15
4 76 44 7 38
4 8 47 77 43
4 47 20 61 77
4 43 77 63 18
4 77 61 24 63
4 20 48 78 61
4 48 6 35 78
4 61 78 64 24
4 78 35 14 64
4 18 63 79 44
4 63 24 62 79
4 44 79 39 7
4 79 62 16 39
4 24 64 80 62
4 64 14 36 80
4 62 80 40 16
4 80 36 3 40

CELL_TYPES 64
9 9 9 9 9 9 9 9 9 9 9 9 9 9 9 9 9 9 9 9 9 9 9 9 9 9 9 9 9 9 9 9 9 9 9 9 9 9 9 9 9 9 9 9 9 9 9 9 9 9 9 9 9 9 9 9 9 9 9 9 9 9 9 9 



CELL_DATA 64
SCALARS MaterialID int 1
LOOKUP_TABLE default
0 1 1 0 0 1 1 0 0 1 1 0 0 1 1 0 0 1 1 0 0 1 1 0 0 1 1 0 0 1 1 0 0 1 1 0 0 1 1 0 0 1 1 0 0 1 1 0 0 1 1 0 0 1 1 0 0 1 1 0 0 1 1 0 



SCALARS ManifoldID int 1
LOOKUP_TABLE default
-1 -1 -1 -1 -1 -1 -1 -1 -1 -1 -1 -1 -1 -1 -1 -1 -1 -1 -1 -1 -1 -1 -1 -1 -1 -1 -1 -1 -1 -1 -1 -1 -1 -1 -1 -1 -1 -1 -1 -1 -1 -1 -1 -1 -1 -1 -1 -1 -1 -1 -1 -1 -1 -1 -1 -1 -1 -1 -1 -1 -1 -1 -1 -1 


