# vtk DataFile Version 3.0
Triangulation generated with deal.II
ASCII
DATASET UNSTRUCTURED_GRID
POINTS 289 double
0 0 0
1 0 0
0 1 0
1 1 0
0.5 0 0
0 0.5 0
1 0.5 0
0.5 1 0
0.5 0.5 0
0.25 0 0
0.75 0 0
0 0.25 0
0 0.75 0
1 0.25 0
1 0.75 0
0.25 1 0
0.75 1 0
0.5 0.25 0
0.5 0.75 0
0.25 0.5 0
0.75 0.5 0
0.25 0.25 0
0.75 0.25 0
0.25 0.75 0
0.75 0.75 0
0.125 0 0
0.375 0 0
0.625 0 0
0.875 0 0
0 0.125 0
0 0.375 0
0 0.625 0
0 0.875 0
1 0.125 0
1 0.375 0
1 0.625 0
1 0.875 0
0.125 1 0
0.375 1 0
0.625 1 0
0.875 1 0
0.5 0.125 0
0.5 0.375 0
0.5 0.625 0
0.5 0.875 0
0.125 0.5 0
0.375 0.5 0
0.625 0.5 0
0.875 0.5 0
0.25 0.125 0
0.25 0.375 0
0.125 0.25 0
0.375 0.25 0
0.75 0.125 0
0.75 0.375 0
0.625 0.25 0
0.875 0.25 0
0.25 0.625 0
0.25 0.875 0
0.125 0.75 0
0.375 0.75 0
0.75 0.625 0
0.75 0.875 0
0.625 0.75 0
0.875 0.75 0
0.125 0.125 0
0.375 0.125 0
0.125 0.375 0
0.375 0.375 0
0.625 0.125 0
0.875 0.125 0
0.625 0.375 0
0.875 0.375 0
0.125 0.625 0
0.375 0.625 0
0.125 0.875 0
0.375 0.875 0
0.625 0.625 0
0.875 0.625 0
0.625 0.875 0
0.875 0.875 0
0.0625 0 0
0.1875 0 0
0.3125 0 0
0.4375 0 0
0.5625 0 0
0.6875 0 0
0.8125 0 0
0.9375 0 0
0 0.0625 0
0 0.1875 0
0 0.3125 0
0 0.4375 0
0 0.5625 0
0 0.6875 0
0 0.8125 0
0 0.9375 0
1 0.0625 0
1 0.1875 0
1 0.3125 0
1 0.4375 0
1 0.5625 0
1 0.6875 0
1 0.8125 0
1 0.9375 0
0.0625 1 0
0.1875 1 0
0.3125 1 0
0.4375 1 0
0.5625 1 0
0.6875 1 0
0.8125 1 0
0.9375 1 0
0.5 0.0625 0
0.5 0.1875 0
0.5 0.3125 0
0.5 0.4375 0
0.5 0.5625 0
0.5 0.6875 0
0.5 0.8125 0
0.5 0.9375 0
0.0625 0.5 0
0.1875 0.5 0
0.3125 0.5 0
0.4375 0.5 0
0.5625 0.5 0
0.6875 0.5 0
0.8125 0.5 0
0.9375 0.5 0
0.25 0.0625 0
0.25 0.1875 0
0.25 0.3125 0
0.25 0.4375 0
0.0625 0.25 0
0.1875 0.25 0
0.3125 0.25 0
0.4375 0.25 0
0.75 0.0625 0
0.75 0.1875 0
0.75 0.3125 0
0.75 0.4375 0
0.5625 0.25 0
0.6875 0.25 0
0.8125 0.25 0
0.9375 0.25 0
0.25 0.5625 0
0.25 0.6875 0
0.25 0.8125 0
0.25 0.9375 0
0.0625 0.75 0
0.1875 0.75 0
0.3125 0.75 0
0.4375 0.75 0
0.75 0.5625 0
0.75 0.6875 0
0.75 0.8125 0
0.75 0.9375 0
0.5625 0.75 0
0.6875 0.75 0
0.8125 0.75 0
0.9375 0.75 0
0.125 0.0625 0
0.125 0.1875 0
0.0625 0.125 0
0.1875 0.125 0
0.375 0.0625 0
0.375 0.1875 0
0.3125 0.125 0
0.4375 0.125 0
0.125 0.3125 0
0.125 0.4375 0
0.0625 0.375 0
0.1875 0.375 0
0.375 0.3125 0
0.375 0.4375 0
0.3125 0.375 0
0.4375 0.375 0
0.625 0.0625 0
0.625 0.1875 0
0.5625 0.125 0
0.6875 0.125 0
0.875 0.0625 0
0.875 0.1875 0
0.8125 0.125 0
0.9375 0.125 0
0.625 0.3125 0
0.625 0.4375 0
0.5625 0.375 0
0.6875 0.375 0
0.875 0.3125 0
0.875 0.4375 0
0.8125 0.375 0
0.9375 0.375 0
0.125 0.5625 0
0.125 0.6875 0
0.0625 0.625 0
0.1875 0.625 0
0.375 0.5625 0
0.375 0.6875 0
0.3125 0.625 0
0.4375 0.625 0
0.125 0.8125 0
0.125 0.9375 0
0.0625 0.875 0
0.1875 0.875 0
0.375 0.8125 0
0.375 0.9375 0
0.3125 0.875 0
0.4375 0.875 0
0.625 0.5625 0
0.625 0.6875 0
0.5625 0.625 0
0.6875 0.625 0
0.875 0.5625 0
0.875 0.6875 0
0.8125 0.625 0
0.9375 0.625 0
0.625 0.8125 0
0.625 0.9375 0
0.5625 0.875 0
0.6875 0.875 0
0.875 0.8125 0
0.875 0.9375 0
0.8125 0.875 0
0.9375 0.875 0
0.0625 0.0625 0
0.1875 0.0625 0
0.0625 0.1875 0
0.1875 0.1875 0
0.3125 0.0625 0
0.4375 0.0625 0
0.3125 0.1875 0
0.4375 0.1875 0
0.0625 0.3125 0
0.1875 0.3125 0
0.0625 0.4375 0
0.1875 0.4375 0
0.3125 0.3125 0
0.4375 0.3125 0
0.3125 0.4375 0
0.4375 0.4375 0
0.5625 0.0625 0
0.6875 0.0625 0
0.5625 0.1875 0
0.6875 0.1875 0
0.8125 0.0625 0
0.9375 0.0625 0
0.8125 0.1875 0
0.9375 0.1875 0
0.5625 0.3125 0
0.6875 0.3125 0
0.5625 0.4375 0
0.6875 0.4375 0
0.8125 0.3125 0
0.9375 0.3125 0
0.8125 0.4375 0
0.9375 0.4375 0
0.0625 0.5625 0
0.1875 0.5625 0
0.0625 0.6875 0
0.1875 0.6875 0
0.3125 0.5625 0
0.4375 0.5625 0
0.3125 0.6875 0
0.4375 0.6875 0
0.0625 0.8125 0
0.1875 0.8125 0
0.0625 0.9375 0
0.1875 0.9375 0
0.3125 0.8125 0
0.4375 0.8125 0
0.3125 0.9375 0
0.4375 0.9375 0
0.5625 0.5625 0
0.6875 0.5625 0
0.5625 0.6875 0
0.6875 0.6875 0
0.8125 0.5625 0
0.9375 0.5625 0
0.8125 0.6875 0
0.9375 0.6875 0
0.5625 0.8125 0
0.6875 0.8125 0
0.5625 0.9375 0
0.6875 0.9375 0
0.8125 0.8125 0
0.9375 0.8125 0
0.8125 0.9375 0
0.9375 0.9375 0

CELLS 256 1280
4 0 81 225 89
4 81 25 161 225
4 89 225 163 29
4 225 161 65 163
4 25 82 226 161
4 82 9 129 226
4 161 226 164 65
4 226 129 49 164
4 29 163 227 90
4 163 65 162 227
4 90 227 133 11
4 227 162 51 133
4 65 164 228 162
4 164 49 130 228
4 162 228 134 51
4 228 130 21 134
4 9 83 229 129
4 83 26 165 229
4 129 229 167 49
4 229 165 66 167
4 26 84 230 165
4 84 4 113 230
4 165 230 168 66
4 230 113 41 168
4 49 167 231 130
4 167 66 166 231
4 130 231 135 21
4 231 166 52 135
4 66 168 232 166
4 168 41 114 232
4 166 232 136 52
4 232 114 17 136
4 11 133 233 91
4 133 51 169 233
4 91 233 171 30
4 233 169 67 171
4 51 134 234 169
4 134 21 131 234
4 169 234 172 67
4 234 131 50 172
4 30 171 235 92
4 171 67 170 235
4 92 235 121 5
4 235 170 45 121
4 67 172 236 170
4 172 50 132 236
4 170 236 122 45
4 236 132 19 122
4 21 135 237 131
4 135 52 173 237
4 131 237 175 50
4 237 173 68 175
4 52 136 238 173
4 136 17 115 238
4 173 238 176 68
4 238 115 42 176
4 50 175 239 132
4 175 68 174 239
4 132 239 123 19
4 239 174 46 123
4 68 176 240 174
4 176 42 116 240
4 174 240 124 46
4 240 116 8 124
4 4 85 241 113
4 85 27 177 241
4 113 241 179 41
4 241 177 69 179
4 27 86 242 177
4 86 10 137 242
4 177 242 180 69
4 242 137 53 180
4 41 179 243 114
4 179 69 178 243
4 114 243 141 17
4 243 178 55 141
4 69 180 244 178
4 180 53 138 244
4 178 244 142 55
4 244 138 22 142
4 10 87 245 137
4 87 28 181 245
4 137 245 183 53
4 245 181 70 183
4 28 88 246 181
4 88 1 97 246
4 181 246 184 70
4 246 97 33 184
4 53 183 247 138
4 183 70 182 247
4 138 247 143 22
4 247 182 56 143
4 70 184 248 182
4 184 33 98 248
4 182 248 144 56
4 248 98 13 144
4 17 141 249 115
4 141 55 185 249
4 115 249 187 42
4 249 185 71 187
4 55 142 250 185
4 142 22 139 250
4 185 250 188 71
4 250 139 54 188
4 42 187 251 116
4 187 71 186 251
4 116 251 125 8
4 251 186 47 125
4 71 188 252 186
4 188 54 140 252
4 186 252 126 47
4 252 140 20 126
4 22 143 253 139
4 143 56 189 253
4 139 253 191 54
4 253 189 72 191
4 56 144 254 189
4 144 13 99 254
4 189 254 192 72
4 254 99 34 192
4 54 191 255 140
4 191 72 190 255
4 140 255 127 20
4 255 190 48 127
4 72 192 256 190
4 192 34 100 256
4 190 256 128 48
4 256 100 6 128
4 5 121 257 93
4 121 45 193 257
4 93 257 195 31
4 257 193 73 195
4 45 122 258 193
4 122 19 145 258
4 193 258 196 73
4 258 145 57 196
4 31 195 259 94
4 195 73 194 259
4 94 259 149 12
4 259 194 59 149
4 73 196 260 194
4 196 57 146 260
4 194 260 150 59
4 260 146 23 150
4 19 123 261 145
4 123 46 197 261
4 145 261 199 57
4 261 197 74 199
4 46 124 262 197
4 124 8 117 262
4 197 262 200 74
4 262 117 43 200
4 57 199 263 146
4 199 74 198 263
4 146 263 151 23
4 263 198 60 151
4 74 200 264 198
4 200 43 118 264
4 198 264 152 60
4 264 118 18 152
4 12 149 265 95
4 149 59 201 265
4 95 265 203 32
4 265 201 75 203
4 59 150 266 201
4 150 23 147 266
4 201 266 204 75
4 266 147 58 204
4 32 203 267 96
4 203 75 202 267
4 96 267 105 2
4 267 202 37 105
4 75 204 268 202
4 204 58 148 268
4 202 268 106 37
4 268 148 15 106
4 23 151 269 147
4 151 60 205 269
4 147 269 207 58
4 269 205 76 207
4 60 152 270 205
4 152 18 119 270
4 205 270 208 76
4 270 119 44 208
4 58 207 271 148
4 207 76 206 271
4 148 271 107 15
4 271 206 38 107
4 76 208 272 206
4 208 44 120 272
4 206 272 108 38
4 272 120 7 108
4 8 125 273 117
4 125 47 209 273
4 117 273 211 43
4 273 209 77 211
4 47 126 274 209
4 126 20 153 274
4 209 274 212 77
4 274 153 61 212
4 43 211 275 118
4 211 77 210 275
4 118 275 157 18
4 275 210 63 157
4 77 212 276 210
4 212 61 154 276
4 210 276 158 63
4 276 154 24 158
4 20 127 277 153
4 127 48 213 277
4 153 277 215 61
4 277 213 78 215
4 48 128 278 213
4 128 6 101 278
4 213 278 216 78
4 278 101 35 216
4 61 215 279 154
4 215 78 214 279
4 154 279 159 24
4 279 214 64 159
4 78 216 280 214
4 216 35 102 280
4 214 280 160 64
4 280 102 14 160
4 18 157 281 119
4 157 63 217 281
4 119 281 219 44
4 281 217 79 219
4 63 158 282 217
4 158 24 155 282
4 217 282 220 79
4 282 155 62 220
4 44 219 283 120
4 219 79 218 283
4 120 283 109 7
4 283 218 39 109
4 79 220 284 218
4 220 62 156 284
4 218 284 110 39
4 284 156 16 110
4 24 159 285 155
4 159 64 221 285
4 155 285 223 62
4 285 221 80 223
4 64 160 286 221
4 160 14 103 286
4 221 286 224 80
4 286 103 36 224
4 62 223 287 156
4 223 80 222 287
4 156 287 111 16
4 287 222 40 111
4 80 224 288 222
4 224 36 104 288
4 222 288 112 40
4 288 104 3 112

CELL_TYPES 256
9 9 9 9 9 9 9 9 9 9 9 9 9 9 9 9 9 9 9 9 9 9 9 9 9 9 9 9 9 9 9 9 9 9 9 9 9 9 9 9 9 9 9 9 9 9 9 9 9 9 9 9 9 9 9 9 9 9 9 9 9 9 9 9 9 9 9 9 9 9 9 9 9 9 9 9 9 9 9 9 9 9 9 9 9 9 9 9 9 9 9 9 9 9 9 9 9 9 9 9 9 9 9 9 9 9 9 9 9 9 9 9 9 9 9 9 9 9 9 9 9 9 9 9 9 9 9 9 9 9 9 9 9 9 9 9 9 9 9 9 9 9 9 9 9 9 9 9 9 9 9 9 9 9 9 9 9 9 9 9 9 9 9 9 9 9 9 9 9 9 9 9 9 9 9 9 9 9 9 9 9 9 9 9 9 9 9 9 9 9 9 9 9 9 9 9 9 9 9 9 9 9 9 9 9 9 9 9 9 9 9 9 9 9 9 9 9 9 9 9 9 9 9 9 9 9 9 9 9 9 9 9 9 9 9 9 9 9 9 9 9 9 9 9 9 9 9 9 9 9 9 9 9 9 9 9 



CELL_DATA 256
SCALARS MaterialID int 1
LOOKUP_TABLE default
0 1 1 0 0 1 1 0 0 1 1 0 0 1 1 0 0 1 1 0 0 1 1 0 0 1 1 0 0 1 1 0 0 1 1 0 0 1 1 0 0 1 1 0 0 1 1 0 0 1 1 0 0 1 1 0 0 1 1 0 0 1 1 0 0 1 1 0 0 1 1 0 0 1 1 0 0 1 1 0 0 1 1 0 0 1 1 0 0 1 1 0 0 1 1 0 0 1 1 0 0 1 1 0 0 1 1 0 0 1 1 0 0 1 1 0 0 1 1 0 0 1 1 0 0 1 1 0 0 1 1 0 0 1 1 0 0 1 1 0 0 1 1 0 0 1 1 0 0 1 1 0 0 1 1 0 0 1 1 0 0 1 1 0 0 1 1 0 0 1 1 0 0 1 1 0 0 1 1 0 0 1 1 0 0 1 1 0 0 1 1 0 0 1 1 0 0 1 1 0 0 1 1 0 0 1 1 0 0 1 1 0 0 1 1 0 0 1 1 0 0 1 1 0 0 1 1 0 0 1 1 0 0 1 1 0 0 1 1 0 0 1 1 0 0 1 1 0 0 1 1 0 0 1 1 0 



SCALARS ManifoldID int 1
LOOKUP_TABLE default
-1 -1 -1 -1 -1 -1 -1 -1 -1 -1 -1 -1 -1 -1 -1 -1 -1 -1 -1 -1 -1 -1 -1 -1 -1 -1 -1 -1 -1 -1 -1 -1 -1 -1 -1 -1 -1 -1 -1 -1 -1 -1 -1 -1 -1 -1 -1 -1 -1 -1 -1 -1 -1 -1 -1 -1 -1 -1 -1 -1 -1 -1 -1 -1 -1 -1 -1 -1 -1 -1 -1 -1 -1 -1 -1 -1 -1 -1 -1 -1 -1 -1 -1 -1 -1 -1 -1 -1 -1 -1 -1 -1 -1 -1 -1 -1 -1 -1 -1 -1 -1 -1 -1 -1 -1 -1 -1 -1 -1 -1 -1 -1 -1 -1 -1 -1 -1 -1 -1 -1 -1 -1 -1 -1 -1 -1 -1 -1 -1 -1 -1 -1 -1 -1 -1 -1 -1 -1 -1 -1 -1 -1 -1 -1 -1 -1 -1 -1 -1 -1 -1 -1 -1 -1 -1 -1 -1 -1 -1 -1 -1 -1 -1 -1 -1 -1 -1 -1 -1 -1 -1 -1 -1 -1 -1 -1 -1 -1 -1 -1 -1 -1 -1 -1 -1 -1 -1 -1 -1 -1 -1 -1 -1 -1 -1 -1 -1 -1 -1 -1 -1 -1 -1 -1 -1 -1 -1 -1 -1 -1 -1 -1 -1 -1 -1 -1 -1 -1 -1 -1 -1 -1 -1 -1 -1 -1 -1 -1 -1 -1 -1 -1 -1 -1 -1 -1 -1 -1 -1 -1 -1 -1 -1 -1 -1 -1 -1 -1 -1 -1 -1 -1 -1 -1 -1 -1 


